                         Program Version 5.0.3 -  RELEASE  -
|  1> !BLYP D3BJ def2-TZVP Opt NumFreq xyzfile
|  2>
|  3> %Freq
|  4> Temp 298.15
|  5> end
|  6>
|  7> %pal
|  8> nprocs 6
|  9> end
| 10>
| 11> *xyzfile 0 1 hydro2.xyz
| 12>
| 13>                          ****END OF INPUT****
 Total Charge           Charge          ....    0
 Multiplicity           Mult            ....    1
 Number of Electrons    NEL             ....   50
Dispersion correction           -0.023657554
FINAL SINGLE POINT ENERGY      -323.566016241209
Dispersion correction            ... done
Dispersion correction           -0.023576906
FINAL SINGLE POINT ENERGY      -323.569817119559
Dispersion correction            ... done
Dispersion correction           -0.023555508
FINAL SINGLE POINT ENERGY      -323.571339280578
Dispersion correction            ... done
FINAL SINGLE POINT ENERGY      -323.571526507530
FINAL SINGLE POINT ENERGY      -323.571592849563
Dispersion correction            ... done
Dispersion correction           -0.023568485
FINAL SINGLE POINT ENERGY      -323.571602286917
Dispersion correction            ... done
Dispersion correction           -0.023567533
FINAL SINGLE POINT ENERGY      -323.571604599281
Dispersion correction            ... done
                    ***********************HURRAY********************

CARTESIAN COORDINATES (ANGSTROEM)
---------------------------------
  O      2.309015   -0.093414    0.000054
  N      0.270123   -1.167698    0.000017
  C      1.079614    0.007924    0.000034
  C      0.294355    1.231403    0.000062
  C     -1.097185   -1.189039    0.000006
  C     -1.077223    1.210623    0.000050
  C     -1.805237   -0.016772    0.000019
  H      0.797049   -2.038302    0.000008
  H      0.855736    2.161853    0.000088
  H     -1.564099   -2.170885   -0.000014
  H     -1.627826    2.151008    0.000066
  H     -2.890123   -0.033304    0.000010

 Multiplicity           Mult            ....    1
 Number of Electrons    NEL             ....   50
 Basis Dimension        Dim             ....  247

ORBITAL ENERGIES
----------------

  NO   OCC          E(Eh)            E(eV)
   0   2.0000     -18.730461      -509.6817
   1   2.0000     -14.066329      -382.7643
   2   2.0000     -10.003179      -272.2003
   3   2.0000      -9.972729      -271.3718
   4   2.0000      -9.935505      -270.3588
   5   2.0000      -9.922597      -270.0076
   6   2.0000      -9.919064      -269.9115
   7   2.0000      -0.934695       -25.4344
   8   2.0000      -0.867019       -23.5928
   9   2.0000      -0.739992       -20.1362
  10   2.0000      -0.683138       -18.5891
  11   2.0000      -0.588951       -16.0262
  12   2.0000      -0.572298       -15.5730
  13   2.0000      -0.506105       -13.7718
  14   2.0000      -0.452136       -12.3033
  15   2.0000      -0.435558       -11.8521
  16   2.0000      -0.412612       -11.2278
  17   2.0000      -0.388472       -10.5709
  18   2.0000      -0.373620       -10.1667
  19   2.0000      -0.341949        -9.3049
  20   2.0000      -0.332767        -9.0551
  21   2.0000      -0.303641        -8.2625
  22   2.0000      -0.275198        -7.4885
  23   2.0000      -0.208189        -5.6651
  24   2.0000      -0.195408        -5.3173
  25   0.0000      -0.077158        -2.0996
  26   0.0000      -0.027151        -0.7388
  27   0.0000       0.000808         0.0220
  28   0.0000       0.034440         0.9372
  29   0.0000       0.050304         1.3688

MULLIKEN ATOMIC CHARGES
-----------------------
   0 O :   -0.328409
   1 N :   -0.156875
   2 C :    0.186153
   3 C :   -0.167007
   4 C :    0.008877
   5 C :   -0.053332
   6 C :   -0.147694
   7 H :    0.204712
   8 H :    0.109064
   9 H :    0.127668
  10 H :    0.110116
  11 H :    0.106726
Sum of atomic charges:    0.0000000

LOEWDIN ATOMIC CHARGES
----------------------
   0 O :    0.053044
   1 N :    0.204005
   2 C :   -0.423022
   3 C :   -0.118914
   4 C :   -0.182027
   5 C :   -0.124188
   6 C :   -0.180937
   7 H :    0.193099
   8 H :    0.148713
   9 H :    0.140322
  10 H :    0.145743
  11 H :    0.144163

  Mayer bond orders larger than 0.100000
B(  0-O ,  2-C ) :   2.0666 B(  1-N ,  2-C ) :   1.0465 B(  1-N ,  4-C ) :   1.2419
B(  1-N ,  7-H ) :   0.9026 B(  2-C ,  3-C ) :   1.1346 B(  3-C ,  5-C ) :   1.5381
B(  3-C ,  8-H ) :   0.9695 B(  4-C ,  6-C ) :   1.5968 B(  4-C ,  9-H ) :   0.9365
B(  5-C ,  6-C ) :   1.2327 B(  5-C , 10-H ) :   0.9457 B(  6-C , 11-H ) :   0.9584

Dispersion correction           -0.023567074
FINAL SINGLE POINT ENERGY      -323.571605411906

DIPOLE MOMENT
-------------
                                X             Y             Z
Electronic contribution:      2.79532      -0.71418       0.00000
Nuclear contribution   :     -4.36571       0.19871      -0.00002
                        -----------------------------------------
Total Dipole Moment    :     -1.57039      -0.51547      -0.00001
                        -----------------------------------------
Magnitude (a.u.)       :      1.65282
Magnitude (Debye)      :      4.20115

VIBRATIONAL FREQUENCIES
-----------------------

Scaling factor for frequencies =  1.000000000 (already applied!)

   0:         0.00 cm**-1
   1:         0.00 cm**-1
   2:         0.00 cm**-1
   3:         0.00 cm**-1
   4:         0.00 cm**-1
   5:         0.00 cm**-1
   6:       161.73 cm**-1
   7:       379.43 cm**-1
   8:       443.66 cm**-1
   9:       471.24 cm**-1
  10:       533.57 cm**-1
  11:       600.82 cm**-1
  12:       683.76 cm**-1
  13:       711.89 cm**-1
  14:       739.40 cm**-1
  15:       784.71 cm**-1
  16:       827.22 cm**-1
  17:       897.31 cm**-1
  18:       965.38 cm**-1
  19:       976.08 cm**-1
  20:       993.27 cm**-1
  21:      1078.36 cm**-1
  22:      1126.24 cm**-1
  23:      1186.30 cm**-1
  24:      1201.36 cm**-1
  25:      1351.15 cm**-1
  26:      1410.19 cm**-1
  27:      1447.52 cm**-1
  28:      1522.80 cm**-1
  29:      1599.07 cm**-1
  30:      1676.98 cm**-1
  31:      3092.88 cm**-1
  32:      3123.51 cm**-1
  33:      3136.14 cm**-1
  34:      3151.78 cm**-1
  35:      3475.32 cm**-1

IR SPECTRUM
-----------

 Mode   freq       eps      Int      T**2         TX        TY        TZ
       cm**-1   L/(mol*cm) km/mol    a.u.
----------------------------------------------------------------------------
  6:    161.73   0.000460    2.33  0.000888  ( 0.000056 -0.000021  0.029803)
  7:    379.43   0.000281    1.42  0.000231  (-0.000037  0.000017 -0.015213)
  8:    443.66   0.001092    5.52  0.000768  (-0.008645  0.026335  0.000025)
  9:    471.24   0.007408   37.44  0.004906  (-0.000056  0.000020 -0.070040)
 10:    533.57   0.001057    5.34  0.000618  ( 0.024421  0.004674 -0.000015)
 11:    600.82   0.000283    1.43  0.000147  (-0.008930 -0.008186 -0.000002)
 12:    683.76   0.007506   37.93  0.003426  (-0.000011  0.000009 -0.058530)
 13:    711.89   0.000881    4.45  0.000386  (-0.000048  0.000025 -0.019655)
 14:    739.40   0.012410   62.71  0.005237  (-0.000019  0.000008  0.072370)
 15:    784.71   0.001872    9.46  0.000744  (-0.024120 -0.012754 -0.000052)
 16:    827.22   0.002938   14.85  0.001108  (-0.000015  0.000051 -0.033292)
 17:    897.31   0.000005    0.02  0.000002  ( 0.000019 -0.000001 -0.001310)
 18:    965.38   0.000000    0.00  0.000000  ( 0.000018  0.000013 -0.000243)
 19:    976.08   0.002182   11.03  0.000697  ( 0.026407 -0.000378  0.000010)
 20:    993.27   0.001052    5.32  0.000331  ( 0.017879  0.003308 -0.000011)
 21:   1078.36   0.003595   18.17  0.001040  (-0.000656 -0.032248  0.000009)
 22:   1126.24   0.004009   20.26  0.001111  (-0.032410 -0.007778  0.000010)
 23:   1186.30   0.000056    0.28  0.000015  ( 0.003749  0.000767  0.000004)
 24:   1201.36   0.004915   24.84  0.001277  (-0.028628  0.021380 -0.000001)
 25:   1351.15   0.000482    2.44  0.000111  (-0.003908 -0.009804 -0.000004)
 26:   1410.19   0.001058    5.35  0.000234  ( 0.005865  0.014130 -0.000005)
 27:   1447.52   0.000197    0.99  0.000042  ( 0.003789 -0.005299  0.000002)
 28:   1522.80   0.007726   39.04  0.001583  (-0.017236 -0.035864  0.000005)
 29:   1599.07   0.007898   39.91  0.001541  ( 0.022602  0.032101  0.000001)
 30:   1676.98   0.103160  521.33  0.019197  ( 0.138141 -0.010665  0.000006)
 31:   3092.88   0.002764   13.97  0.000279  (-0.007921  0.014702  0.000000)
 32:   3123.51   0.000684    3.45  0.000068  (-0.002916 -0.007732 -0.000003)
 33:   3136.14   0.000951    4.80  0.000095  ( 0.003437  0.009098 -0.000001)
 34:   3151.78   0.000757    3.83  0.000075  (-0.008343 -0.002319  0.000000)
 35:   3475.32   0.007841   39.63  0.000704  (-0.010512  0.024364  0.000003)

--------------------------
THERMOCHEMISTRY AT 298.15K
--------------------------

Temperature         ... 298.15 K
Pressure            ... 1.00 atm
Total Mass          ... 95.10 AMU

Throughout the following assumptions are being made:
  (1) The electronic state is orbitally nondegenerate
  (2) There are no thermally accessible electronically excited states
  (3) Hindered rotations indicated by low frequency modes are not
      treated as such but are treated as vibrations and this may
      cause some error
  (4) All equations used are the standard statistical mechanics
      equations for an ideal gas
  (5) All vibrations are strictly harmonic

freq.     161.73  E(vib)   ...       0.39
freq.     379.43  E(vib)   ...       0.21
freq.     443.66  E(vib)   ...       0.17
freq.     471.24  E(vib)   ...       0.15
freq.     533.57  E(vib)   ...       0.13
freq.     600.82  E(vib)   ...       0.10
freq.     683.76  E(vib)   ...       0.07
freq.     711.89  E(vib)   ...       0.07
freq.     739.40  E(vib)   ...       0.06
freq.     784.71  E(vib)   ...       0.05
freq.     827.22  E(vib)   ...       0.04
freq.     897.31  E(vib)   ...       0.03
freq.     965.38  E(vib)   ...       0.03
freq.     976.08  E(vib)   ...       0.03
freq.     993.27  E(vib)   ...       0.02
freq.    1078.36  E(vib)   ...       0.02
freq.    1126.24  E(vib)   ...       0.01
freq.    1186.30  E(vib)   ...       0.01
freq.    1201.36  E(vib)   ...       0.01
freq.    1351.15  E(vib)   ...       0.01
freq.    1410.19  E(vib)   ...       0.00
freq.    1447.52  E(vib)   ...       0.00
freq.    1522.80  E(vib)   ...       0.00
freq.    1599.07  E(vib)   ...       0.00
freq.    1676.98  E(vib)   ...       0.00
freq.    3092.88  E(vib)   ...       0.00
freq.    3123.51  E(vib)   ...       0.00
freq.    3136.14  E(vib)   ...       0.00
freq.    3151.78  E(vib)   ...       0.00
freq.    3475.32  E(vib)   ...       0.00

------------
INNER ENERGY
------------

The inner energy is: U= E(el) + E(ZPE) + E(vib) + E(rot) + E(trans)
    E(el)   - is the total energy from the electronic structure calculation
              = E(kin-el) + E(nuc-el) + E(el-el) + E(nuc-nuc)
    E(ZPE)  - the the zero temperature vibrational energy from the frequency calculation
    E(vib)  - the the finite temperature correction to E(ZPE) due to population
              of excited vibrational states
    E(rot)  - is the rotational thermal energy
    E(trans)- is the translational thermal energy

Summary of contributions to the inner energy U:
Electronic energy                ...   -323.57160541 Eh
Zero point energy                ...      0.09055505 Eh      56.82 kcal/mol
Thermal vibrational correction   ...      0.00259894 Eh       1.63 kcal/mol
Thermal rotational correction    ...      0.00141627 Eh       0.89 kcal/mol
Thermal translational correction ...      0.00141627 Eh       0.89 kcal/mol
-----------------------------------------------------------------------
Total thermal energy                   -323.47561887 Eh

Summary of corrections to the electronic energy:
(perhaps to be used in another calculation)
Total thermal correction                  0.00543149 Eh       3.41 kcal/mol
Non-thermal (ZPE) correction              0.09055505 Eh      56.82 kcal/mol
-----------------------------------------------------------------------
Total correction                          0.09598654 Eh      60.23 kcal/mol

--------
ENTHALPY
--------

The enthalpy is H = U + kB*T
                kB is Boltzmann's constant
Total free energy                 ...   -323.47561887 Eh
Thermal Enthalpy correction       ...      0.00094421 Eh       0.59 kcal/mol
-----------------------------------------------------------------------
Total Enthalpy                    ...   -323.47467466 Eh

Note: Rotational entropy computed according to Herzberg
Infrared and Raman Spectra, Chapter V,1, Van Nostrand Reinhold, 1945
Point Group:  Cs, Symmetry Number:   1
Rotational constants in cm-1:     0.186906     0.091790     0.061559

Vibrational entropy computed according to the QRRHO of S. Grimme
Chem.Eur.J. 2012 18 9955

-------
ENTROPY
-------

The entropy contributions are T*S = T*(S(el)+S(vib)+S(rot)+S(trans))
     S(el)   - electronic entropy
     S(vib)  - vibrational entropy
     S(rot)  - rotational entropy
     S(trans)- translational entropy
The entropies will be listed as multiplied by the temperature to get
units of energy

Electronic entropy                ...      0.00000000 Eh      0.00 kcal/mol
Vibrational entropy               ...      0.00387621 Eh      2.43 kcal/mol
Rotational entropy                ...      0.01274612 Eh      8.00 kcal/mol
Translational entropy             ...      0.01880010 Eh     11.80 kcal/mol
-----------------------------------------------------------------------
Final entropy term                ...      0.03542244 Eh     22.23 kcal/mol

In case the symmetry of your molecule has not been determined correctly
or in case you have a reason to use a different symmetry number we print
out the resulting rotational entropy values for sn=1,12 :
 --------------------------------------------------------
|  sn= 1 | S(rot)=       0.01274612 Eh      8.00 kcal/mol|
|  sn= 2 | S(rot)=       0.01209167 Eh      7.59 kcal/mol|
|  sn= 3 | S(rot)=       0.01170883 Eh      7.35 kcal/mol|
|  sn= 4 | S(rot)=       0.01143721 Eh      7.18 kcal/mol|
|  sn= 5 | S(rot)=       0.01122652 Eh      7.04 kcal/mol|
|  sn= 6 | S(rot)=       0.01105438 Eh      6.94 kcal/mol|
|  sn= 7 | S(rot)=       0.01090883 Eh      6.85 kcal/mol|
|  sn= 8 | S(rot)=       0.01078275 Eh      6.77 kcal/mol|
|  sn= 9 | S(rot)=       0.01067155 Eh      6.70 kcal/mol|
|  sn=10 | S(rot)=       0.01057207 Eh      6.63 kcal/mol|
|  sn=11 | S(rot)=       0.01048208 Eh      6.58 kcal/mol|
|  sn=12 | S(rot)=       0.01039992 Eh      6.53 kcal/mol|
 --------------------------------------------------------

-------------------
GIBBS FREE ENERGY
-------------------

The Gibbs free energy is G = H - T*S

Total enthalpy                    ...   -323.47467466 Eh
Total entropy correction          ...     -0.03542244 Eh    -22.23 kcal/mol
-----------------------------------------------------------------------
Final Gibbs free energy         ...   -323.51009710 Eh

For completeness - the Gibbs free energy minus the electronic energy
G-E(el)                           ...      0.06150831 Eh     38.60 kcal/mol

                             ****ORCA TERMINATED NORMALLY****
TOTAL RUN TIME: 0 days 0 hours 7 minutes 55 seconds 485 msec
