                         Program Version 5.0.3 -  RELEASE  -
|  1> !BLYP D3BJ def2-TZVP OptTS Freq xyzfile
|  2>
|  3> %geom
|  4> TS_Mode {B 3 9} end
|  5> end
|  6>
|  7> %Freq
|  8> Temp 298.15
|  9> end
| 10>
| 11> %pal
| 12> nprocs 6
| 13> end
| 14>
| 15> *xyzfile 0 1 init_ts1.xyz
| 16>
| 17>                          ****END OF INPUT****
 Total Charge           Charge          ....    0
 Multiplicity           Mult            ....    1
 Number of Electrons    NEL             ....   32
Dispersion correction           -0.012533899
FINAL SINGLE POINT ENERGY      -193.069992434947
Dispersion correction            ... done
Dispersion correction           -0.012455518
FINAL SINGLE POINT ENERGY      -193.067064219401
Dispersion correction            ... done
Dispersion correction           -0.012283333
FINAL SINGLE POINT ENERGY      -193.064932186555
Dispersion correction            ... done
FINAL SINGLE POINT ENERGY      -193.069781854911
FINAL SINGLE POINT ENERGY      -193.069979966520
FINAL SINGLE POINT ENERGY      -193.069988020832
Dispersion correction           -0.012541668
FINAL SINGLE POINT ENERGY      -193.069984161096
Dispersion correction            ... done
Dispersion correction           -0.012534233
FINAL SINGLE POINT ENERGY      -193.069991995399
Dispersion correction            ... done
                    ***********************HURRAY********************

CARTESIAN COORDINATES (ANGSTROEM)
---------------------------------
  O     -0.482562   -1.116067    0.499321
  C      1.471302    0.234729   -0.019326
  C     -0.004422    0.033473    0.118142
  C     -1.071670    0.962039   -0.062622
  H      1.745868    1.215551    0.390568
  H      2.039225   -0.552123    0.485943
  H      1.739570    0.253549   -1.085725
  H     -1.728784    0.693136   -0.897439
  H     -0.915807    2.038692    0.026751
  H     -1.525601   -0.329297    0.611557

 Multiplicity           Mult            ....    1
 Number of Electrons    NEL             ....   32
 Basis Dimension        Dim             ....  160

ORBITAL ENERGIES
----------------

  NO   OCC          E(Eh)            E(eV)
   0   2.0000     -18.789526      -511.2890
   1   2.0000     -10.006384      -272.2876
   2   2.0000      -9.927577      -270.1431
   3   2.0000      -9.888826      -269.0886
   4   2.0000      -0.959191       -26.1009
   5   2.0000      -0.694714       -18.9041
   6   2.0000      -0.638553       -17.3759
   7   2.0000      -0.485567       -13.2129
   8   2.0000      -0.440757       -11.9936
   9   2.0000      -0.415258       -11.2997
  10   2.0000      -0.402809       -10.9610
  11   2.0000      -0.356664        -9.7053
  12   2.0000      -0.355092        -9.6625
  13   2.0000      -0.321303        -8.7431
  14   2.0000      -0.278361        -7.5746
  15   2.0000      -0.188035        -5.1167
  16   0.0000      -0.077032        -2.0961
  17   0.0000       0.007422         0.2020
  18   0.0000       0.045455         1.2369
  19   0.0000       0.066001         1.7960
  20   0.0000       0.076088         2.0705

MULLIKEN ATOMIC CHARGES
-----------------------
   0 O :   -0.330120
   1 C :   -0.304885
   2 C :    0.314410
   3 C :   -0.538200
   4 H :    0.124951
   5 H :    0.125081
   6 H :    0.125773
   7 H :    0.142714
   8 H :    0.091347
   9 H :    0.248929
Sum of atomic charges:   -0.0000000

LOEWDIN ATOMIC CHARGES
----------------------
   0 O :    0.066379
   1 C :   -0.251773
   2 C :   -0.375612
   3 C :   -0.394129
   4 H :    0.142020
   5 H :    0.131385
   6 H :    0.143493
   7 H :    0.142971
   8 H :    0.113244
   9 H :    0.282022

  Mayer bond orders larger than 0.100000
B(  0-O ,  2-C ) :   1.5153 B(  0-O ,  9-H ) :   0.4475 B(  1-C ,  2-C ) :   0.9530
B(  1-C ,  4-H ) :   0.9525 B(  1-C ,  5-H ) :   0.9771 B(  1-C ,  6-H ) :   0.9377
B(  2-C ,  3-C ) :   1.2121 B(  3-C ,  7-H ) :   0.9331 B(  3-C ,  8-H ) :   0.9458
B(  3-C ,  9-H ) :   0.4538

Dispersion correction           -0.012534499
FINAL SINGLE POINT ENERGY      -193.069992524867

DIPOLE MOMENT
-------------
                                X             Y             Z
Electronic contribution:     -0.82075      -2.58382       0.88904
Nuclear contribution   :      1.41988       3.07188      -1.20466
                        -----------------------------------------
Total Dipole Moment    :      0.59914       0.48806      -0.31562
                        -----------------------------------------
Magnitude (a.u.)       :      0.83473
Magnitude (Debye)      :      2.12173

Dispersion correction in the Hessian             ... done   (      0.5 sec)

VIBRATIONAL FREQUENCIES
-----------------------

Scaling factor for frequencies =  1.000000000  (already applied!)

   0:         0.00 cm**-1
   1:         0.00 cm**-1
   2:         0.00 cm**-1
   3:         0.00 cm**-1
   4:         0.00 cm**-1
   5:         0.00 cm**-1
   6:     -1945.61 cm**-1 ***imaginary mode***
   7:        67.51 cm**-1
   8:       371.42 cm**-1
   9:       420.09 cm**-1
  10:       562.46 cm**-1
  11:       629.64 cm**-1
  12:       751.01 cm**-1
  13:       870.74 cm**-1
  14:       953.48 cm**-1
  15:       994.46 cm**-1
  16:      1066.48 cm**-1
  17:      1099.80 cm**-1
  18:      1294.22 cm**-1
  19:      1357.31 cm**-1
  20:      1399.36 cm**-1
  21:      1437.95 cm**-1
  22:      1443.23 cm**-1
  23:      1467.72 cm**-1
  24:      1732.37 cm**-1
  25:      2967.27 cm**-1
  26:      3015.47 cm**-1
  27:      3016.86 cm**-1
  28:      3061.30 cm**-1
  29:      3085.22 cm**-1

IR SPECTRUM
-----------

 Mode   freq       eps      Int      T**2         TX        TY        TZ
       cm**-1   L/(mol*cm) km/mol    a.u.
----------------------------------------------------------------------------
  7:     67.51   0.000048    0.24  0.000223  (-0.012584  0.001679 -0.007869)
  8:    371.42   0.001232    6.22  0.001035  ( 0.013486 -0.029176  0.001347)
  9:    420.09   0.005096   25.76  0.003786  ( 0.049399 -0.031685 -0.018485)
 10:    562.46   0.004414   22.31  0.002449  ( 0.033025 -0.036646 -0.003921)
 11:    629.64   0.007575   38.28  0.003754  (-0.051431  0.032984  0.004618)
 12:    751.01   0.014717   74.37  0.006115  (-0.059223  0.032255  0.039592)
 13:    870.74   0.000591    2.99  0.000212  (-0.007265 -0.000613  0.012598)
 14:    953.48   0.000479    2.42  0.000157  ( 0.010944  0.002848 -0.005386)
 15:    994.46   0.004713   23.82  0.001479  (-0.031885  0.021319 -0.002819)
 16:   1066.48   0.002499   12.63  0.000731  (-0.000837 -0.016441  0.021454)
 17:   1099.80   0.013382   67.63  0.003797  (-0.053683 -0.003026 -0.030100)
 18:   1294.22   0.009168   46.33  0.002211  (-0.044581 -0.001916  0.014811)
 19:   1357.31   0.010235   51.73  0.002353  ( 0.028820  0.034727 -0.017795)
 20:   1399.36   0.028167  142.34  0.006281  ( 0.021280 -0.073928  0.019053)
 21:   1437.95   0.005230   26.43  0.001135  ( 0.026463 -0.017787 -0.010878)
 22:   1443.23   0.002737   13.83  0.000592  (-0.020547  0.002414 -0.012802)
 23:   1467.72   0.022214  112.26  0.004723  (-0.031141  0.057278 -0.021738)
 24:   1732.37   0.001464    7.40  0.000264  ( 0.012084  0.010609  0.002282)
 25:   2967.27   0.000288    1.46  0.000030  ( 0.005108  0.000435 -0.002007)
 26:   3015.47   0.000189    0.95  0.000020  ( 0.003783  0.002217 -0.000551)
 27:   3016.86   0.000934    4.72  0.000097  (-0.004470 -0.005162 -0.007072)
 28:   3061.30   0.002308   11.66  0.000235  (-0.011750  0.009020 -0.003975)
 29:   3085.22   0.002071   10.47  0.000210  (-0.000895  0.014442  0.000354)

--------------------------
THERMOCHEMISTRY AT 298.15K
--------------------------

Temperature         ... 298.15 K
Pressure            ... 1.00 atm
Total Mass          ... 58.08 AMU

Throughout the following assumptions are being made:
  (1) The electronic state is orbitally nondegenerate
  (2) There are no thermally accessible electronically excited states
  (3) Hindered rotations indicated by low frequency modes are not
      treated as such but are treated as vibrations and this may
      cause some error
  (4) All equations used are the standard statistical mechanics
      equations for an ideal gas
  (5) All vibrations are strictly harmonic

freq.      67.51  E(vib)   ...       0.50
freq.     371.42  E(vib)   ...       0.21
freq.     420.09  E(vib)   ...       0.18
freq.     562.46  E(vib)   ...       0.11
freq.     629.64  E(vib)   ...       0.09
freq.     751.01  E(vib)   ...       0.06
freq.     870.74  E(vib)   ...       0.04
freq.     953.48  E(vib)   ...       0.03
freq.     994.46  E(vib)   ...       0.02
freq.    1066.48  E(vib)   ...       0.02
freq.    1099.80  E(vib)   ...       0.02
freq.    1294.22  E(vib)   ...       0.01
freq.    1357.31  E(vib)   ...       0.01
freq.    1399.36  E(vib)   ...       0.00
freq.    1437.95  E(vib)   ...       0.00
freq.    1443.23  E(vib)   ...       0.00
freq.    1467.72  E(vib)   ...       0.00
freq.    1732.37  E(vib)   ...       0.00
freq.    2967.27  E(vib)   ...       0.00
freq.    3015.47  E(vib)   ...       0.00
freq.    3016.86  E(vib)   ...       0.00
freq.    3061.30  E(vib)   ...       0.00
freq.    3085.22  E(vib)   ...       0.00

------------
INNER ENERGY
------------

The inner energy is: U= E(el) + E(ZPE) + E(vib) + E(rot) + E(trans)
    E(el)   - is the total energy from the electronic structure calculation
              = E(kin-el) + E(nuc-el) + E(el-el) + E(nuc-nuc)
    E(ZPE)  - the the zero temperature vibrational energy from the frequency calculation
    E(vib)  - the the finite temperature correction to E(ZPE) due to population
              of excited vibrational states
    E(rot)  - is the rotational thermal energy
    E(trans)- is the translational thermal energy

Summary of contributions to the inner energy U:
Electronic energy                ...   -193.06999252 Eh
Zero point energy                ...      0.07532851 Eh      47.27 kcal/mol
Thermal vibrational correction   ...      0.00209058 Eh       1.31 kcal/mol
Thermal rotational correction    ...      0.00141627 Eh       0.89 kcal/mol
Thermal translational correction ...      0.00141627 Eh       0.89 kcal/mol
-----------------------------------------------------------------------
Total thermal energy                   -192.98974090 Eh

Summary of corrections to the electronic energy:
(perhaps to be used in another calculation)
Total thermal correction                  0.00492312 Eh       3.09 kcal/mol
Non-thermal (ZPE) correction              0.07532851 Eh      47.27 kcal/mol
-----------------------------------------------------------------------
Total correction                          0.08025163 Eh      50.36 kcal/mol

--------
ENTHALPY
--------

The enthalpy is H = U + kB*T
                kB is Boltzmann's constant
Total free energy                 ...   -192.98974090 Eh
Thermal Enthalpy correction       ...      0.00094421 Eh       0.59 kcal/mol
-----------------------------------------------------------------------
Total Enthalpy                    ...   -192.98879669 Eh

Note: Only C1 symmetry has been detected, increase convergence thresholds
      if your molecule has a higher symmetry. Symmetry factor of 1.0 is
      used for the rotational entropy correction.

Note: Rotational entropy computed according to Herzberg
Infrared and Raman Spectra, Chapter V,1, Van Nostrand Reinhold, 1945
Point Group:  C1, Symmetry Number:   1
Rotational constants in cm-1:     0.382204     0.268561     0.165892

Vibrational entropy computed according to the QRRHO of S. Grimme
Chem.Eur.J. 2012 18 9955

-------
ENTROPY
-------

The entropy contributions are T*S = T*(S(el)+S(vib)+S(rot)+S(trans))
     S(el)   - electronic entropy
     S(vib)  - vibrational entropy
     S(rot)  - rotational entropy
     S(trans)- translational entropy
The entropies will be listed as multiplied by the temperature to get
units of energy

Electronic entropy                ...      0.00000000 Eh      0.00 kcal/mol
Vibrational entropy               ...      0.00340749 Eh      2.14 kcal/mol
Rotational entropy                ...      0.01143358 Eh      7.17 kcal/mol
Translational entropy             ...      0.01810171 Eh     11.36 kcal/mol
-----------------------------------------------------------------------
Final entropy term                ...      0.03294278 Eh     20.67 kcal/mol

In case the symmetry of your molecule has not been determined correctly
or in case you have a reason to use a different symmetry number we print
out the resulting rotational entropy values for sn=1,12 :
 --------------------------------------------------------
|  sn= 1 | S(rot)=       0.01143358 Eh      7.17 kcal/mol|
|  sn= 2 | S(rot)=       0.01077913 Eh      6.76 kcal/mol|
|  sn= 3 | S(rot)=       0.01039630 Eh      6.52 kcal/mol|
|  sn= 4 | S(rot)=       0.01012467 Eh      6.35 kcal/mol|
|  sn= 5 | S(rot)=       0.00991398 Eh      6.22 kcal/mol|
|  sn= 6 | S(rot)=       0.00974184 Eh      6.11 kcal/mol|
|  sn= 7 | S(rot)=       0.00959629 Eh      6.02 kcal/mol|
|  sn= 8 | S(rot)=       0.00947022 Eh      5.94 kcal/mol|
|  sn= 9 | S(rot)=       0.00935901 Eh      5.87 kcal/mol|
|  sn=10 | S(rot)=       0.00925953 Eh      5.81 kcal/mol|
|  sn=11 | S(rot)=       0.00916954 Eh      5.75 kcal/mol|
|  sn=12 | S(rot)=       0.00908738 Eh      5.70 kcal/mol|
 --------------------------------------------------------

-------------------
GIBBS FREE ENERGY
-------------------

The Gibbs free energy is G = H - T*S

Total enthalpy                    ...   -192.98879669 Eh
Total entropy correction          ...     -0.03294278 Eh    -20.67 kcal/mol
-----------------------------------------------------------------------
Final Gibbs free energy         ...   -193.02173947 Eh

For completeness - the Gibbs free energy minus the electronic energy
G-E(el)                           ...      0.04825305 Eh     30.28 kcal/mol

                             ****ORCA TERMINATED NORMALLY****
TOTAL RUN TIME: 0 days 0 hours 1 minutes 29 seconds 346 msec
